36   
2    

1    
  0.0041735029431167   0.0041735029431167   0.0080724064793340
  -0.1647884400   -0.3129000200   -0.0960556900
  -0.0038441400   -0.0038098300    0.0023136800
   0.0002219700   -0.0078763500    0.0023171000
   0.0017970700   -0.0153114100   -0.0047081000
  -0.0002749900   -0.0062655200   -0.0002256500
  -0.0010304900   -0.0102451400   -0.0002249700
   0.0017719300   -0.0153679100   -0.0047682100
  -0.0026148900   -0.0086465700   -0.0002241300
   0.0013300900   -0.0078973300   -0.0002308600
   0.0191501900    0.0202829200    0.0454085300
   0.0161024400    0.0041323900   -0.0018775500
  -0.0121544700   -0.0011662000    0.0005601100
  -0.0134566600    0.0001689500    0.0005700700
  -0.0103489700   -0.0009990000   -0.0001428700
  -0.0071068300    0.0000091600    0.0003878200
  -0.0036243300    0.0233730200   -0.0016605700
  -0.0012344800   -0.0012387100    0.0000482200
  -0.0112755200   -0.0001056900   -0.0001441800
   0.0869859500    0.0853286500    0.0448810200
   0.0130930200   -0.0005446400    0.0005687300
   0.0159683700   -0.0111206700   -0.0017516300
   0.0117149900    0.0007638100    0.0005745700
   0.0072469200    0.0001310000    0.0003854400
   0.0119739500    0.0008306500   -0.0001447500
  -0.0035542900    0.0082560300   -0.0017967800
   0.0111137600    0.0017011800   -0.0001407800
   0.0009990800    0.0010153900    0.0000512400
  -0.0070105600    0.0607362500   -0.0124218800
  -0.0058588600    0.0044201600   -0.0057314600
   0.0014190500    0.0117729600   -0.0057453900
  -0.0007071900    0.0152410100   -0.0000200600
   0.0011101900    0.0090675800    0.0002702800
  -0.0003214100    0.0076237300    0.0002697500
   0.0459018600    0.1372974900    0.0385855200
  -0.0007391500    0.0042677200    0.0004101200
   0.0020448300    0.0070749600    0.0004133100

1    
 -0.0041735029431167  -0.0041735029431167  -0.0080724064793340
   0.1591030700    0.3040558500    0.0956914200
   0.0020011500   -0.0054487400   -0.0022892400
  -0.0007762500   -0.0026640600   -0.0022872600
  -0.0027079700    0.0041902400    0.0047615300
  -0.0007844700   -0.0049487700    0.0002265500
  -0.0001280900   -0.0005900300    0.0002267900
  -0.0027284700    0.0041234600    0.0047052500
   0.0017583000   -0.0024674100    0.0002278800
  -0.0026553900   -0.0031164600    0.0002220300
  -0.0275910500   -0.0223869100   -0.0453917700
  -0.0237793900   -0.0057694900    0.0017605900
   0.0023963000    0.0004779500   -0.0005715500
   0.0040466800   -0.0011102800   -0.0005604200
   0.0006103800   -0.0001725200    0.0001380700
  -0.0020875000   -0.0011165200   -0.0003740100
  -0.0056406400   -0.0243864900    0.0019716300
  -0.0067470900    0.0010531700   -0.0000582000
   0.0016219100   -0.0012441500    0.0001374700
  -0.0756272900   -0.0813135900   -0.0458763400
  -0.0033964700    0.0017007800   -0.0005634300
  -0.0067903900    0.0118281300    0.0018845300
  -0.0019073000    0.0000991400   -0.0005561300
   0.0019842400    0.0009756200   -0.0003754600
  -0.0026590000    0.0002723100    0.0001357900
   0.0115517300   -0.0066715800    0.0018371200
  -0.0015450800   -0.0008044400    0.0001399800
   0.0082121500    0.0004412500   -0.0000554900
   0.0081413200   -0.0497997100    0.0120025100
   0.0070330300    0.0066442700    0.0057184000
  -0.0007359200   -0.0010085500    0.0057076700
   0.0015393400   -0.0039131800   -0.0000262500
   0.0001248100    0.0021828800   -0.0002700400
   0.0013847800    0.0033738300   -0.0002700900
  -0.0436171000   -0.1310808900   -0.0371257400
   0.0009527200    0.0050346900   -0.0004232900
  -0.0005570700    0.0035601900   -0.0004204900

